# vsim tb_4x4_multiplier -voptargs="+acc" -do "add wave *; run -all" 
# Start time: 09:57:02 on Nov 05,2025
# Loading work.tb_4x4_multiplier
# Loading work.mult4x4
# add wave *
#  run -all
# Time	Clk	A	B	P	Expected
# 5ns	1	 0	 0	  0	 0
# 15ns	1	 1	 1	  1	 1
# 25ns	1	 3	 5	 15	15
# 35ns	1	15	15	225	 1
# 45ns	1	10	 6	 60	12
# ** Note: $finish    : tb_4x4_multiplier.v(42)
#    Time: 45 ns  Iteration: 1  Instance: /tb_4x4_multiplier
# 1
# Break in Module tb_4x4_multiplier at tb_4x4_multiplier.v line 42
# End time: 09:58:38 on Nov 05,2025, Elapsed time: 0:01:36
# Errors: 0, Warnings: 0
